     Message from routine get_command_line:
     unexpected argument # 2     :-inp

     Program PWSCF v.6.0 starts on 30May2021 at  9:20:15 

     This program is part of the open-source Quantum ESPRESSO suite
     for quantum simulation of materials; please cite
         "P. Giannozzi et al., J. Phys.:Condens. Matter 21 395502 (2009);
          URL http://www.quantum-espresso.org", 
     in publications or presentations arising from this work. More details at
     http://www.quantum-espresso.org/quote

     Parallel version (MPI), running on     1 processors
     Waiting for input...
     Reading input from standard input

     Current dimensions of program PWSCF are:
     Max number of different atomic species (ntypx) = 10
     Max number of k-points (npk) =  40000
     Max angular momentum in pseudopotentials (lmaxx) =  3

     Subspace diagonalization in iterative solution of the eigenvalue problem:
     a serial algorithm will be used


     G-vector sticks info
     --------------------
     sticks:   dense  smooth     PW     G-vecs:    dense   smooth      PW
     Sum        1165     583    199                26565     9409    1807



     bravais-lattice index     =            2
     lattice parameter (alat)  =      10.3357  a.u.
     unit-cell volume          =     276.0314 (a.u.)^3
     number of atoms/cell      =            2
     number of atomic types    =            1
     number of electrons       =         8.00
     number of Kohn-Sham states=            4
     kinetic-energy cutoff     =      40.0000  Ry
     charge density cutoff     =     320.0000  Ry
     convergence threshold     =      1.0E-10
     mixing beta               =       0.7000
     number of iterations used =            8  plain     mixing
     Exchange-correlation      = PBE ( 1  4  3  4 0 0)

     celldm(1)=  10.335691  celldm(2)=   0.000000  celldm(3)=   0.000000
     celldm(4)=   0.000000  celldm(5)=   0.000000  celldm(6)=   0.000000

     crystal axes: (cart. coord. in units of alat)
               a(1) = (  -0.500000   0.000000   0.500000 )  
               a(2) = (   0.000000   0.500000   0.500000 )  
               a(3) = (  -0.500000   0.500000   0.000000 )  

     reciprocal axes: (cart. coord. in units 2 pi/alat)
               b(1) = ( -1.000000 -1.000000  1.000000 )  
               b(2) = (  1.000000  1.000000  1.000000 )  
               b(3) = ( -1.000000  1.000000 -1.000000 )  


     PseudoPot. # 1 for Si read from file:
     /home/maestro/Downloads/SSSP_efficiency_pseudos/Si.pbe-n-rrkjus_psl.1.0.0.UPF
     MD5 check sum: 0b0bb1205258b0d07b9f9672cf965d36
     Pseudo is Ultrasoft + core correction, Zval =  4.0
     Generated using "atomic" code by A. Dal Corso  v.5.1
     Using radial grid of 1141 points,  6 beta functions with: 
                l(1) =   0
                l(2) =   0
                l(3) =   1
                l(4) =   1
                l(5) =   2
                l(6) =   2
     Q(r) pseudized with 0 coefficients 


     atomic species   valence    mass     pseudopotential
        Si             4.00    28.08550     Si( 1.00)

     24 Sym. Ops. (no inversion) found
          (note: 24 additional sym.ops. were found but ignored
           their fractional translations are incommensurate with FFT grid)


   Cartesian axes

     site n.     atom                  positions (alat units)
         1           Si  tau(   1) = (   0.0000000   0.0000000   0.0000000  )
         2           Si  tau(   2) = (   0.2500000   0.2500000   0.2500000  )

     number of k points=   110

     Number of k-points >= 100: set verbosity='high' to print them.

     Dense  grid:    26565 G-vectors     FFT dimensions: (  45,  45,  45)

     Smooth grid:     9409 G-vectors     FFT dimensions: (  30,  30,  30)

     Estimated max dynamical RAM per process >      25.99Mb

     Initial potential from superposition of free atoms

     starting charge    7.99888, renormalised to    8.00000
     Starting wfc are    8 randomized atomic wfcs

     total cpu time spent up to now is        4.0 secs

     per-process dynamical memory:    25.6 Mb

     Self-consistent Calculation

     iteration #  1     ecut=    40.00 Ry     beta=0.70
     Davidson diagonalization with overlap
     ethr =  1.00E-02,  avg # of iterations =  2.0

     Threshold (ethr) on eigenvalues was too large:
     Diagonalizing with lowered threshold

     Davidson diagonalization with overlap
     ethr =  6.69E-04,  avg # of iterations =  1.3

     total cpu time spent up to now is        9.9 secs

     total energy              =     -22.83762778 Ry
     Harris-Foulkes estimate   =     -22.85012878 Ry
     estimated scf accuracy    <       0.05316866 Ry

     iteration #  2     ecut=    40.00 Ry     beta=0.70
     Davidson diagonalization with overlap
     ethr =  6.65E-04,  avg # of iterations =  1.0

     total cpu time spent up to now is       12.4 secs

     total energy              =     -22.83944506 Ry
     Harris-Foulkes estimate   =     -22.83968046 Ry
     estimated scf accuracy    <       0.00263791 Ry

     iteration #  3     ecut=    40.00 Ry     beta=0.70
     Davidson diagonalization with overlap
     ethr =  3.30E-05,  avg # of iterations =  2.9

     total cpu time spent up to now is       15.9 secs

     total energy              =     -22.84007624 Ry
     Harris-Foulkes estimate   =     -22.84013798 Ry
     estimated scf accuracy    <       0.00013361 Ry

     iteration #  4     ecut=    40.00 Ry     beta=0.70
     Davidson diagonalization with overlap
     ethr =  1.67E-06,  avg # of iterations =  2.1

     total cpu time spent up to now is       19.0 secs

     total energy              =     -22.84009545 Ry
     Harris-Foulkes estimate   =     -22.84012695 Ry
     estimated scf accuracy    <       0.00006690 Ry

     iteration #  5     ecut=    40.00 Ry     beta=0.70
     Davidson diagonalization with overlap
     ethr =  8.36E-07,  avg # of iterations =  2.0

     total cpu time spent up to now is       21.7 secs

     total energy              =     -22.84010271 Ry
     Harris-Foulkes estimate   =     -22.84010269 Ry
     estimated scf accuracy    <       0.00000004 Ry

     iteration #  6     ecut=    40.00 Ry     beta=0.70
     Davidson diagonalization with overlap
     ethr =  5.29E-10,  avg # of iterations =  4.4

     total cpu time spent up to now is       26.4 secs

     total energy              =     -22.84010308 Ry
     Harris-Foulkes estimate   =     -22.84010309 Ry
     estimated scf accuracy    <       0.00000006 Ry

     iteration #  7     ecut=    40.00 Ry     beta=0.70
     Davidson diagonalization with overlap
     ethr =  5.29E-10,  avg # of iterations =  1.0

     total cpu time spent up to now is       28.9 secs

     total energy              =     -22.84010308 Ry
     Harris-Foulkes estimate   =     -22.84010308 Ry
     estimated scf accuracy    <       0.00000001 Ry

     iteration #  8     ecut=    40.00 Ry     beta=0.70
     Davidson diagonalization with overlap
     ethr =  1.43E-10,  avg # of iterations =  2.0

     total cpu time spent up to now is       31.8 secs

     End of self-consistent calculation

     Number of k-points >= 100: set verbosity='high' to print the bands.

     highest occupied level (ev):     5.9271

!    total energy              =     -22.84010308 Ry
     Harris-Foulkes estimate   =     -22.84010308 Ry
     estimated scf accuracy    <          2.9E-11 Ry

     The total energy is the sum of the following terms:

     one-electron contribution =       5.00144399 Ry
     hartree contribution      =       1.11928365 Ry
     xc contribution           =     -12.28293850 Ry
     ewald contribution        =     -16.67789222 Ry

     convergence has been achieved in   8 iterations

     Forces acting on atoms (Ry/au):

     atom    1 type  1   force =     0.00000000    0.00000000    0.00000000
     atom    2 type  1   force =     0.00000000    0.00000000    0.00000000

     Total force =     0.000000     Total SCF correction =     0.000000


     entering subroutine stress ...

          total   stress  (Ry/bohr**3)                   (kbar)     P=   -0.06
  -0.00000043  -0.00000000  -0.00000000         -0.06     -0.00     -0.00
  -0.00000000  -0.00000043   0.00000000         -0.00     -0.06      0.00
  -0.00000000   0.00000000  -0.00000043         -0.00      0.00     -0.06


     Writing output data file si.save

     init_run     :      2.69s CPU      3.45s WALL (       1 calls)
     electrons    :     23.08s CPU     27.82s WALL (       1 calls)
     forces       :      0.63s CPU      0.87s WALL (       1 calls)
     stress       :      2.71s CPU      3.12s WALL (       1 calls)

     Called by init_run:
     wfcinit      :      1.34s CPU      1.77s WALL (       1 calls)
     potinit      :      0.10s CPU      0.11s WALL (       1 calls)

     Called by electrons:
     c_bands      :     17.51s CPU     20.93s WALL (       9 calls)
     sum_band     :      3.99s CPU      4.93s WALL (       9 calls)
     v_of_rho     :      0.72s CPU      0.78s WALL (       9 calls)
     newd         :      0.95s CPU      1.29s WALL (       9 calls)
     mix_rho      :      0.04s CPU      0.05s WALL (       9 calls)

     Called by c_bands:
     init_us_2    :      1.58s CPU      1.81s WALL (    2310 calls)
     cegterg      :     14.02s CPU     17.13s WALL (     990 calls)

     Called by sum_band:
     sum_band:bec :      0.01s CPU      0.01s WALL (     990 calls)
     addusdens    :      0.93s CPU      1.34s WALL (       9 calls)

     Called by *egterg:
     h_psi        :     13.09s CPU     16.22s WALL (    3163 calls)
     s_psi        :      0.89s CPU      1.04s WALL (    3163 calls)
     g_psi        :      0.04s CPU      0.07s WALL (    2063 calls)
     cdiaghg      :      0.18s CPU      0.16s WALL (    2943 calls)

     Called by h_psi:
     h_psi:pot    :     13.02s CPU     16.15s WALL (    3163 calls)
     h_psi:calbec :      0.95s CPU      1.12s WALL (    3163 calls)
     vloc_psi     :     11.27s CPU     13.95s WALL (    3163 calls)
     add_vuspsi   :      0.74s CPU      1.03s WALL (    3163 calls)

     General routines
     calbec       :      1.46s CPU      1.78s WALL (    4703 calls)
     fft          :      0.45s CPU      0.51s WALL (     169 calls)
     ffts         :      0.00s CPU      0.01s WALL (      18 calls)
     fftw         :     11.77s CPU     14.58s WALL (   27782 calls)
     interpolate  :      0.06s CPU      0.08s WALL (      18 calls)
     davcio       :      0.00s CPU      0.01s WALL (     110 calls)

     Parallel routines
     fft_scatter  :      0.48s CPU      0.60s WALL (   27969 calls)

     PWSCF        :    29.83s CPU        36.04s WALL


   This run was terminated on:   9:20:51  30May2021            

=------------------------------------------------------------------------------=
   JOB DONE.
=------------------------------------------------------------------------------=
