     Message from routine get_command_line:
     unexpected argument # 2     :-inp

     Program PWSCF v.6.0 starts on 30May2021 at 10:21:43 

     This program is part of the open-source Quantum ESPRESSO suite
     for quantum simulation of materials; please cite
         "P. Giannozzi et al., J. Phys.:Condens. Matter 21 395502 (2009);
          URL http://www.quantum-espresso.org", 
     in publications or presentations arising from this work. More details at
     http://www.quantum-espresso.org/quote

     Parallel version (MPI), running on     1 processors
     Waiting for input...
     Reading input from standard input

     Current dimensions of program PWSCF are:
     Max number of different atomic species (ntypx) = 10
     Max number of k-points (npk) =  40000
     Max angular momentum in pseudopotentials (lmaxx) =  3

     Subspace diagonalization in iterative solution of the eigenvalue problem:
     a serial algorithm will be used


     G-vector sticks info
     --------------------
     sticks:   dense  smooth     PW     G-vecs:    dense   smooth      PW
     Sum        1201     595    199                27389     9721    1837



     bravais-lattice index     =            2
     lattice parameter (alat)  =      10.4390  a.u.
     unit-cell volume          =     284.3955 (a.u.)^3
     number of atoms/cell      =            2
     number of atomic types    =            1
     number of electrons       =         8.00
     number of Kohn-Sham states=            4
     kinetic-energy cutoff     =      40.0000  Ry
     charge density cutoff     =     320.0000  Ry
     convergence threshold     =      1.0E-10
     mixing beta               =       0.7000
     number of iterations used =            8  plain     mixing
     Exchange-correlation      = PBE ( 1  4  3  4 0 0)

     celldm(1)=  10.439048  celldm(2)=   0.000000  celldm(3)=   0.000000
     celldm(4)=   0.000000  celldm(5)=   0.000000  celldm(6)=   0.000000

     crystal axes: (cart. coord. in units of alat)
               a(1) = (  -0.500000   0.000000   0.500000 )  
               a(2) = (   0.000000   0.500000   0.500000 )  
               a(3) = (  -0.500000   0.500000   0.000000 )  

     reciprocal axes: (cart. coord. in units 2 pi/alat)
               b(1) = ( -1.000000 -1.000000  1.000000 )  
               b(2) = (  1.000000  1.000000  1.000000 )  
               b(3) = ( -1.000000  1.000000 -1.000000 )  


     PseudoPot. # 1 for Si read from file:
     /home/maestro/Downloads/SSSP_efficiency_pseudos/Si.pbe-n-rrkjus_psl.1.0.0.UPF
     MD5 check sum: 0b0bb1205258b0d07b9f9672cf965d36
     Pseudo is Ultrasoft + core correction, Zval =  4.0
     Generated using "atomic" code by A. Dal Corso  v.5.1
     Using radial grid of 1141 points,  6 beta functions with: 
                l(1) =   0
                l(2) =   0
                l(3) =   1
                l(4) =   1
                l(5) =   2
                l(6) =   2
     Q(r) pseudized with 0 coefficients 


     atomic species   valence    mass     pseudopotential
        Si             4.00    28.08550     Si( 1.00)

     24 Sym. Ops. (no inversion) found
          (note: 24 additional sym.ops. were found but ignored
           their fractional translations are incommensurate with FFT grid)


   Cartesian axes

     site n.     atom                  positions (alat units)
         1           Si  tau(   1) = (   0.0000000   0.0000000   0.0000000  )
         2           Si  tau(   2) = (   0.2500000   0.2500000   0.2500000  )

     number of k points=   110

     Number of k-points >= 100: set verbosity='high' to print them.

     Dense  grid:    27389 G-vectors     FFT dimensions: (  45,  45,  45)

     Smooth grid:     9721 G-vectors     FFT dimensions: (  30,  30,  30)

     Estimated max dynamical RAM per process >      26.59Mb

     Initial potential from superposition of free atoms

     starting charge    7.99888, renormalised to    8.00000
     Starting wfc are    8 randomized atomic wfcs

     total cpu time spent up to now is        5.4 secs

     per-process dynamical memory:    26.0 Mb

     Self-consistent Calculation

     iteration #  1     ecut=    40.00 Ry     beta=0.70
     Davidson diagonalization with overlap
     ethr =  1.00E-02,  avg # of iterations =  2.0

     Threshold (ethr) on eigenvalues was too large:
     Diagonalizing with lowered threshold

     Davidson diagonalization with overlap
     ethr =  6.35E-04,  avg # of iterations =  1.4

     total cpu time spent up to now is       12.9 secs

     total energy              =     -22.83713572 Ry
     Harris-Foulkes estimate   =     -22.84841405 Ry
     estimated scf accuracy    <       0.05050506 Ry

     iteration #  2     ecut=    40.00 Ry     beta=0.70
     Davidson diagonalization with overlap
     ethr =  6.31E-04,  avg # of iterations =  1.0

     total cpu time spent up to now is       17.1 secs

     total energy              =     -22.83878939 Ry
     Harris-Foulkes estimate   =     -22.83901673 Ry
     estimated scf accuracy    <       0.00261614 Ry

     iteration #  3     ecut=    40.00 Ry     beta=0.70
     Davidson diagonalization with overlap
     ethr =  3.27E-05,  avg # of iterations =  2.8

     total cpu time spent up to now is       21.2 secs

     total energy              =     -22.83935499 Ry
     Harris-Foulkes estimate   =     -22.83940836 Ry
     estimated scf accuracy    <       0.00011627 Ry

     iteration #  4     ecut=    40.00 Ry     beta=0.70
     Davidson diagonalization with overlap
     ethr =  1.45E-06,  avg # of iterations =  2.2

     total cpu time spent up to now is       25.1 secs

     total energy              =     -22.83937582 Ry
     Harris-Foulkes estimate   =     -22.83940079 Ry
     estimated scf accuracy    <       0.00005288 Ry

     iteration #  5     ecut=    40.00 Ry     beta=0.70
     Davidson diagonalization with overlap
     ethr =  6.61E-07,  avg # of iterations =  2.0

     total cpu time spent up to now is       28.5 secs

     total energy              =     -22.83938174 Ry
     Harris-Foulkes estimate   =     -22.83938172 Ry
     estimated scf accuracy    <       0.00000002 Ry

     iteration #  6     ecut=    40.00 Ry     beta=0.70
     Davidson diagonalization with overlap
     ethr =  3.06E-10,  avg # of iterations =  4.6

     total cpu time spent up to now is       34.1 secs

     total energy              =     -22.83938207 Ry
     Harris-Foulkes estimate   =     -22.83938208 Ry
     estimated scf accuracy    <       0.00000004 Ry

     iteration #  7     ecut=    40.00 Ry     beta=0.70
     Davidson diagonalization with overlap
     ethr =  3.06E-10,  avg # of iterations =  1.0

     total cpu time spent up to now is       36.8 secs

     total energy              =     -22.83938207 Ry
     Harris-Foulkes estimate   =     -22.83938207 Ry
     estimated scf accuracy    <          6.0E-09 Ry

     iteration #  8     ecut=    40.00 Ry     beta=0.70
     Davidson diagonalization with overlap
     ethr =  7.55E-11,  avg # of iterations =  1.5

     total cpu time spent up to now is       39.7 secs

     total energy              =     -22.83938207 Ry
     Harris-Foulkes estimate   =     -22.83938207 Ry
     estimated scf accuracy    <          3.6E-10 Ry

     iteration #  9     ecut=    40.00 Ry     beta=0.70
     Davidson diagonalization with overlap
     ethr =  4.46E-12,  avg # of iterations =  3.1

     total cpu time spent up to now is       43.9 secs

     End of self-consistent calculation

     Number of k-points >= 100: set verbosity='high' to print the bands.

     highest occupied level (ev):     5.6268

!    total energy              =     -22.83938207 Ry
     Harris-Foulkes estimate   =     -22.83938207 Ry
     estimated scf accuracy    <          1.6E-12 Ry

     The total energy is the sum of the following terms:

     one-electron contribution =       4.77481560 Ry
     hartree contribution      =       1.14599225 Ry
     xc contribution           =     -12.24742535 Ry
     ewald contribution        =     -16.51276457 Ry

     convergence has been achieved in   9 iterations

     Forces acting on atoms (Ry/au):

     atom    1 type  1   force =     0.00000000    0.00000000    0.00000000
     atom    2 type  1   force =     0.00000000    0.00000000    0.00000000

     Total force =     0.000000     Total SCF correction =     0.000000


     entering subroutine stress ...

          total   stress  (Ry/bohr**3)                   (kbar)     P=  -24.90
  -0.00016929   0.00000000  -0.00000000        -24.90      0.00     -0.00
   0.00000000  -0.00016929   0.00000000          0.00    -24.90      0.00
  -0.00000000   0.00000000  -0.00016929         -0.00      0.00    -24.90


     Writing output data file si.save

     init_run     :      3.15s CPU      4.74s WALL (       1 calls)
     electrons    :     31.55s CPU     38.55s WALL (       1 calls)
     forces       :      0.66s CPU      0.77s WALL (       1 calls)
     stress       :      2.78s CPU      3.14s WALL (       1 calls)

     Called by init_run:
     wfcinit      :      1.68s CPU      2.80s WALL (       1 calls)
     potinit      :      0.11s CPU      0.15s WALL (       1 calls)

     Called by electrons:
     c_bands      :     24.26s CPU     28.74s WALL (      10 calls)
     sum_band     :      5.34s CPU      7.11s WALL (      10 calls)
     v_of_rho     :      0.84s CPU      1.09s WALL (      10 calls)
     newd         :      1.19s CPU      1.81s WALL (      10 calls)
     mix_rho      :      0.06s CPU      0.08s WALL (      10 calls)

     Called by c_bands:
     init_us_2    :      2.04s CPU      2.48s WALL (    2530 calls)
     cegterg      :     19.50s CPU     23.47s WALL (    1100 calls)

     Called by sum_band:
     sum_band:bec :      0.02s CPU      0.02s WALL (    1100 calls)
     addusdens    :      1.27s CPU      1.91s WALL (      10 calls)

     Called by *egterg:
     h_psi        :     18.02s CPU     22.24s WALL (    3592 calls)
     s_psi        :      1.14s CPU      1.49s WALL (    3592 calls)
     g_psi        :      0.06s CPU      0.10s WALL (    2382 calls)
     cdiaghg      :      0.19s CPU      0.23s WALL (    3372 calls)

     Called by h_psi:
     h_psi:pot    :     17.90s CPU     22.12s WALL (    3592 calls)
     h_psi:calbec :      1.31s CPU      1.69s WALL (    3592 calls)
     vloc_psi     :     15.31s CPU     18.95s WALL (    3592 calls)
     add_vuspsi   :      1.23s CPU      1.42s WALL (    3592 calls)

     General routines
     calbec       :      1.98s CPU      2.44s WALL (    5242 calls)
     fft          :      0.51s CPU      0.73s WALL (     185 calls)
     ffts         :      0.01s CPU      0.02s WALL (      20 calls)
     fftw         :     15.87s CPU     19.88s WALL (   31044 calls)
     interpolate  :      0.07s CPU      0.11s WALL (      20 calls)
     davcio       :     -0.00s CPU      0.00s WALL (     110 calls)

     Parallel routines
     fft_scatter  :      0.62s CPU      0.80s WALL (   31249 calls)

     PWSCF        :    38.88s CPU        48.02s WALL


   This run was terminated on:  10:22:31  30May2021            

=------------------------------------------------------------------------------=
   JOB DONE.
=------------------------------------------------------------------------------=
