     Message from routine get_command_line:
     unexpected argument # 2     :-inp

     Program PWSCF v.6.0 starts on 30May2021 at 10:23:43 

     This program is part of the open-source Quantum ESPRESSO suite
     for quantum simulation of materials; please cite
         "P. Giannozzi et al., J. Phys.:Condens. Matter 21 395502 (2009);
          URL http://www.quantum-espresso.org", 
     in publications or presentations arising from this work. More details at
     http://www.quantum-espresso.org/quote

     Parallel version (MPI), running on     1 processors
     Waiting for input...
     Reading input from standard input

     Current dimensions of program PWSCF are:
     Max number of different atomic species (ntypx) = 10
     Max number of k-points (npk) =  40000
     Max angular momentum in pseudopotentials (lmaxx) =  3

     Subspace diagonalization in iterative solution of the eigenvalue problem:
     a serial algorithm will be used


     G-vector sticks info
     --------------------
     sticks:   dense  smooth     PW     G-vecs:    dense   smooth      PW
     Sum        1159     583    199                25893     9257    1759



     bravais-lattice index     =            2
     lattice parameter (alat)  =      10.2323  a.u.
     unit-cell volume          =     267.8330 (a.u.)^3
     number of atoms/cell      =            2
     number of atomic types    =            1
     number of electrons       =         8.00
     number of Kohn-Sham states=            4
     kinetic-energy cutoff     =      40.0000  Ry
     charge density cutoff     =     320.0000  Ry
     convergence threshold     =      1.0E-10
     mixing beta               =       0.7000
     number of iterations used =            8  plain     mixing
     Exchange-correlation      = PBE ( 1  4  3  4 0 0)

     celldm(1)=  10.232334  celldm(2)=   0.000000  celldm(3)=   0.000000
     celldm(4)=   0.000000  celldm(5)=   0.000000  celldm(6)=   0.000000

     crystal axes: (cart. coord. in units of alat)
               a(1) = (  -0.500000   0.000000   0.500000 )  
               a(2) = (   0.000000   0.500000   0.500000 )  
               a(3) = (  -0.500000   0.500000   0.000000 )  

     reciprocal axes: (cart. coord. in units 2 pi/alat)
               b(1) = ( -1.000000 -1.000000  1.000000 )  
               b(2) = (  1.000000  1.000000  1.000000 )  
               b(3) = ( -1.000000  1.000000 -1.000000 )  


     PseudoPot. # 1 for Si read from file:
     /home/maestro/Downloads/SSSP_efficiency_pseudos/Si.pbe-n-rrkjus_psl.1.0.0.UPF
     MD5 check sum: 0b0bb1205258b0d07b9f9672cf965d36
     Pseudo is Ultrasoft + core correction, Zval =  4.0
     Generated using "atomic" code by A. Dal Corso  v.5.1
     Using radial grid of 1141 points,  6 beta functions with: 
                l(1) =   0
                l(2) =   0
                l(3) =   1
                l(4) =   1
                l(5) =   2
                l(6) =   2
     Q(r) pseudized with 0 coefficients 


     atomic species   valence    mass     pseudopotential
        Si             4.00    28.08550     Si( 1.00)

     24 Sym. Ops. (no inversion) found
          (note: 24 additional sym.ops. were found but ignored
           their fractional translations are incommensurate with FFT grid)


   Cartesian axes

     site n.     atom                  positions (alat units)
         1           Si  tau(   1) = (   0.0000000   0.0000000   0.0000000  )
         2           Si  tau(   2) = (   0.2500000   0.2500000   0.2500000  )

     number of k points=   110

     Number of k-points >= 100: set verbosity='high' to print them.

     Dense  grid:    25893 G-vectors     FFT dimensions: (  45,  45,  45)

     Smooth grid:     9257 G-vectors     FFT dimensions: (  30,  30,  30)

     Estimated max dynamical RAM per process >      25.45Mb

     Initial potential from superposition of free atoms

     starting charge    7.99888, renormalised to    8.00000
     Starting wfc are    8 randomized atomic wfcs

     total cpu time spent up to now is        4.1 secs

     per-process dynamical memory:    25.7 Mb

     Self-consistent Calculation

     iteration #  1     ecut=    40.00 Ry     beta=0.70
     Davidson diagonalization with overlap
     ethr =  1.00E-02,  avg # of iterations =  2.0

     Threshold (ethr) on eigenvalues was too large:
     Diagonalizing with lowered threshold

     Davidson diagonalization with overlap
     ethr =  7.05E-04,  avg # of iterations =  1.2

     total cpu time spent up to now is       10.2 secs

     total energy              =     -22.83656818 Ry
     Harris-Foulkes estimate   =     -22.85035194 Ry
     estimated scf accuracy    <       0.05587165 Ry

     iteration #  2     ecut=    40.00 Ry     beta=0.70
     Davidson diagonalization with overlap
     ethr =  6.98E-04,  avg # of iterations =  1.0

     total cpu time spent up to now is       12.9 secs

     total energy              =     -22.83859414 Ry
     Harris-Foulkes estimate   =     -22.83883558 Ry
     estimated scf accuracy    <       0.00265193 Ry

     iteration #  3     ecut=    40.00 Ry     beta=0.70
     Davidson diagonalization with overlap
     ethr =  3.31E-05,  avg # of iterations =  2.9

     total cpu time spent up to now is       17.0 secs

     total energy              =     -22.83929704 Ry
     Harris-Foulkes estimate   =     -22.83936730 Ry
     estimated scf accuracy    <       0.00015136 Ry

     iteration #  4     ecut=    40.00 Ry     beta=0.70
     Davidson diagonalization with overlap
     ethr =  1.89E-06,  avg # of iterations =  2.1

     total cpu time spent up to now is       20.8 secs

     total energy              =     -22.83931444 Ry
     Harris-Foulkes estimate   =     -22.83935365 Ry
     estimated scf accuracy    <       0.00008305 Ry

     iteration #  5     ecut=    40.00 Ry     beta=0.70
     Davidson diagonalization with overlap
     ethr =  1.04E-06,  avg # of iterations =  2.0

     total cpu time spent up to now is       23.9 secs

     total energy              =     -22.83932328 Ry
     Harris-Foulkes estimate   =     -22.83932324 Ry
     estimated scf accuracy    <       0.00000004 Ry

     iteration #  6     ecut=    40.00 Ry     beta=0.70
     Davidson diagonalization with overlap
     ethr =  4.89E-10,  avg # of iterations =  4.5

     total cpu time spent up to now is       29.2 secs

     total energy              =     -22.83932370 Ry
     Harris-Foulkes estimate   =     -22.83932373 Ry
     estimated scf accuracy    <       0.00000010 Ry

     iteration #  7     ecut=    40.00 Ry     beta=0.70
     Davidson diagonalization with overlap
     ethr =  4.89E-10,  avg # of iterations =  1.0

     total cpu time spent up to now is       32.1 secs

     total energy              =     -22.83932370 Ry
     Harris-Foulkes estimate   =     -22.83932370 Ry
     estimated scf accuracy    <       0.00000002 Ry

     iteration #  8     ecut=    40.00 Ry     beta=0.70
     Davidson diagonalization with overlap
     ethr =  2.10E-10,  avg # of iterations =  2.0

     total cpu time spent up to now is       35.4 secs

     total energy              =     -22.83932370 Ry
     Harris-Foulkes estimate   =     -22.83932370 Ry
     estimated scf accuracy    <          1.2E-10 Ry

     iteration #  9     ecut=    40.00 Ry     beta=0.70
     Davidson diagonalization with overlap
     ethr =  1.46E-12,  avg # of iterations =  3.4

     total cpu time spent up to now is       39.9 secs

     End of self-consistent calculation

     Number of k-points >= 100: set verbosity='high' to print the bands.

     highest occupied level (ev):     6.2389

!    total energy              =     -22.83932370 Ry
     Harris-Foulkes estimate   =     -22.83932370 Ry
     estimated scf accuracy    <          4.1E-12 Ry

     The total energy is the sum of the following terms:

     one-electron contribution =       5.23404162 Ry
     hartree contribution      =       1.09261137 Ry
     xc contribution           =     -12.31962092 Ry
     ewald contribution        =     -16.84635577 Ry

     convergence has been achieved in   9 iterations

     Forces acting on atoms (Ry/au):

     atom    1 type  1   force =     0.00000000    0.00000000    0.00000000
     atom    2 type  1   force =     0.00000000    0.00000000    0.00000000

     Total force =     0.000000     Total SCF correction =     0.000000


     entering subroutine stress ...

          total   stress  (Ry/bohr**3)                   (kbar)     P=   28.50
   0.00019371   0.00000000   0.00000000         28.50      0.00      0.00
   0.00000000   0.00019371   0.00000000          0.00     28.50      0.00
   0.00000000   0.00000000   0.00019371          0.00      0.00     28.50


     Writing output data file si.save

     init_run     :      2.96s CPU      3.54s WALL (       1 calls)
     electrons    :     30.38s CPU     35.74s WALL (       1 calls)
     forces       :      0.58s CPU      0.68s WALL (       1 calls)
     stress       :      2.76s CPU      3.04s WALL (       1 calls)

     Called by init_run:
     wfcinit      :      1.50s CPU      1.81s WALL (       1 calls)
     potinit      :      0.12s CPU      0.13s WALL (       1 calls)

     Called by electrons:
     c_bands      :     23.41s CPU     27.04s WALL (      10 calls)
     sum_band     :      5.17s CPU      6.33s WALL (      10 calls)
     v_of_rho     :      0.80s CPU      1.00s WALL (      10 calls)
     newd         :      1.09s CPU      1.50s WALL (      10 calls)
     mix_rho      :      0.05s CPU      0.06s WALL (      10 calls)

     Called by c_bands:
     init_us_2    :      1.84s CPU      2.11s WALL (    2530 calls)
     cegterg      :     19.11s CPU     22.47s WALL (    1100 calls)

     Called by sum_band:
     sum_band:bec :      0.01s CPU      0.02s WALL (    1100 calls)
     addusdens    :      1.12s CPU      1.55s WALL (      10 calls)

     Called by *egterg:
     h_psi        :     17.75s CPU     20.89s WALL (    3638 calls)
     s_psi        :      1.11s CPU      1.30s WALL (    3638 calls)
     g_psi        :      0.10s CPU      0.10s WALL (    2428 calls)
     cdiaghg      :      0.19s CPU      0.22s WALL (    3418 calls)

     Called by h_psi:
     h_psi:pot    :     17.65s CPU     20.80s WALL (    3638 calls)
     h_psi:calbec :      1.15s CPU      1.48s WALL (    3638 calls)
     vloc_psi     :     15.30s CPU     17.98s WALL (    3638 calls)
     add_vuspsi   :      1.12s CPU      1.28s WALL (    3638 calls)

     General routines
     calbec       :      1.78s CPU      2.14s WALL (    5288 calls)
     fft          :      0.48s CPU      0.62s WALL (     185 calls)
     ffts         :      0.02s CPU      0.02s WALL (      20 calls)
     fftw         :     16.07s CPU     18.92s WALL (   31788 calls)
     interpolate  :      0.08s CPU      0.09s WALL (      20 calls)
     davcio       :      0.00s CPU      0.00s WALL (     110 calls)

     Parallel routines
     fft_scatter  :      0.62s CPU      0.75s WALL (   31993 calls)

     PWSCF        :    37.44s CPU        43.80s WALL


   This run was terminated on:  10:24:27  30May2021            

=------------------------------------------------------------------------------=
   JOB DONE.
=------------------------------------------------------------------------------=
